# vtk DataFile Version 3.0 
2D Unstructured Grid
ASCII
DATASET UNSTRUCTURED_GRID
POINTS 12 float 
0 0 0.
0 1 0.
1 0 0.
1 1 0.
0 0.5 0.
0.5 0 0.
1 0.5 0.
0.5 1 0.
0.29375 0.70625 0.
0.375 0.375 0.
0.6479167 0.64375 0.
0.71875 0.28125 0.

CELLS 14 56
3 6 3 10
3 4 0 9
3 0 5 9
3 3 7 10
3 5 2 11
3 2 6 11
3 7 1 8
3 1 4 8
3 6 10 11
3 8 4 9
3 8 9 10
3 9 5 11
3 10 9 11
3 7 8 10

CELL_TYPES 14
5
5
5
5
5
5
5
5
5
5
5
5
5
5

CELL_DATA 14
SCALARS sol float 1
LOOKUP_TABLE default
0.008525711
0.01017288
0.01017288
0.008670346
0.004402504
0.004402504
0.004988376
0.004988376
0.05664328
0.06327179
0.172809
0.06067911
0.1692637
0.05996127

SCALARS CFL float 1
LOOKUP_TABLE default
1.85184e-05
2.140735e-05
2.140735e-05
1.875868e-05
1.053187e-05
1.053187e-05
1.174333e-05
1.174333e-05
0.0001536494
0.000173303
0.0004783704
0.0001643093
0.0004580109
0.0001628936

SCALARS Pe float 1
LOOKUP_TABLE default
0.004906455
0.006042752
0.006042752
0.005009341
0.002300404
0.002300404
0.002648727
0.002648727
0.02610214
0.02887514
0.07803305
0.02801085
0.07819194
0.02758975

