# vtk DataFile Version 3.0 
2D Unstructured Grid
ASCII
DATASET UNSTRUCTURED_GRID
POINTS 12 float 
0 0 0.
0 1 0.
1 0 0.
1 1 0.
0 0.5 0.
0.5 0 0.
1 0.5 0.
0.5 1 0.
0.29375 0.70625 0.
0.375 0.375 0.
0.6479167 0.64375 0.
0.71875 0.28125 0.

CELLS 14 56
3 6 3 10
3 4 0 9
3 0 5 9
3 3 7 10
3 5 2 11
3 2 6 11
3 7 1 8
3 1 4 8
3 6 10 11
3 8 4 9
3 8 9 10
3 9 5 11
3 10 9 11
3 7 8 10

CELL_TYPES 14
5
5
5
5
5
5
5
5
5
5
5
5
5
5

CELL_DATA 14
SCALARS sol float 1
LOOKUP_TABLE default
0.191008
0.1992318
0.1992318
0.1914507
0.164418
0.164418
0.1688732
0.1688732
0.3283891
0.3393611
0.4771401
0.3350291
0.4733996
0.3340627

SCALARS CFL float 1
LOOKUP_TABLE default
0.0004148818
0.0004192546
0.0004192546
0.0004142121
0.000393328
0.000393328
0.0003975508
0.0003975508
0.0008907812
0.0009295186
0.001320821
0.0009072051
0.001280973
0.0009075301

SCALARS Pe float 1
LOOKUP_TABLE default
0.1099231
0.1183449
0.1183449
0.1106117
0.08591199
0.08591199
0.08966825
0.08966825
0.151327
0.1548731
0.2154558
0.154657
0.2186885
0.153711

