# vtk DataFile Version 3.0 
2D Unstructured Grid
ASCII
DATASET UNSTRUCTURED_GRID
POINTS 12 float 
0 0 0.
0 1 0.
1 0 0.
1 1 0.
0 0.5 0.
0.5 0 0.
1 0.5 0.
0.5 1 0.
0.29375 0.70625 0.
0.375 0.375 0.
0.6479167 0.64375 0.
0.71875 0.28125 0.

CELLS 14 56
3 6 3 10
3 4 0 9
3 0 5 9
3 3 7 10
3 5 2 11
3 2 6 11
3 7 1 8
3 1 4 8
3 6 10 11
3 8 4 9
3 8 9 10
3 9 5 11
3 10 9 11
3 7 8 10

CELL_TYPES 14
5
5
5
5
5
5
5
5
5
5
5
5
5
5

CELL_DATA 14
SCALARS sol float 1
LOOKUP_TABLE default
0.191158
0.1993883
0.1993883
0.1916011
0.1645471
0.1645471
0.1690058
0.1690058
0.328647
0.3396276
0.4775149
0.3352923
0.4737714
0.3343251

SCALARS CFL float 1
LOOKUP_TABLE default
0.0004152077
0.0004195839
0.0004195839
0.0004145374
0.000393637
0.000393637
0.0003978631
0.0003978631
0.0008914808
0.0009302486
0.001321858
0.0009079176
0.001281979
0.0009082429

SCALARS Pe float 1
LOOKUP_TABLE default
0.1100094
0.1184379
0.1184379
0.1106986
0.08597946
0.08597946
0.08973868
0.08973868
0.1514458
0.1549947
0.215625
0.1547785
0.2188603
0.1538317

