# vtk DataFile Version 3.0 
2D Unstructured Grid
ASCII
DATASET UNSTRUCTURED_GRID
POINTS 12 float 
0 0 0.
0 1 0.
1 0 0.
1 1 0.
0 0.5 0.
0.5 0 0.
1 0.5 0.
0.5 1 0.
0.29375 0.70625 0.
0.375 0.375 0.
0.6479167 0.64375 0.
0.71875 0.28125 0.

CELLS 14 56
3 6 3 10
3 4 0 9
3 0 5 9
3 3 7 10
3 5 2 11
3 2 6 11
3 7 1 8
3 1 4 8
3 6 10 11
3 8 4 9
3 8 9 10
3 9 5 11
3 10 9 11
3 7 8 10

CELL_TYPES 14
5
5
5
5
5
5
5
5
5
5
5
5
5
5

CELL_DATA 14
SCALARS sol float 1
LOOKUP_TABLE default
0.1867687
0.1970186
0.1984711
0.1885143
0.1636051
0.159111
0.1662199
0.1987892
0.2034669
0.334536
0.2135722
0.3425474
0.465526
0.1787543

SCALARS CFL float 1
LOOKUP_TABLE default
0.0004056737
0.0004145971
0.0004176538
0.0004078592
0.0003913833
0.0003806323
0.0003913046
0.0004679772
0.00055192
0.0009163026
0.0005912113
0.0009275634
0.001259667
0.000485612

SCALARS Pe float 1
LOOKUP_TABLE default
0.1074834
0.1170302
0.1178931
0.1089152
0.08548722
0.08313895
0.08825941
0.105553
0.09376083
0.1526711
0.09643994
0.1581276
0.2150513
0.08224952

